VARIABLES = X, Density, U, Temperature, P, rhoU, rhoE, M
ZONE I = 100, DATAPACKING=POINT
-0.495 0.445 0.698 0.027624 3.52799916 0.31061 8.92840079 2.061153622e-09 
-0.485 0.445 0.698 0.027624 3.52799916 0.31061 8.92840079 2.061153622e-09 
-0.475 0.445 0.698 0.027624 3.52799916 0.31061 8.92840079 2.061153622e-09 
-0.465 0.445 0.698 0.027624 3.52799916 0.31061 8.92840079 2.061153622e-09 
-0.455 0.445 0.698 0.027624 3.52799916 0.31061 8.92840079 2.061153622e-09 
-0.445 0.445 0.698 0.027624 3.52799916 0.31061 8.92840079 2.061153622e-09 
-0.435 0.445 0.698 0.027624 3.52799916 0.31061 8.92840079 2.061153622e-09 
-0.425 0.445 0.698 0.027624 3.52799916 0.31061 8.92840079 2.061153622e-09 
-0.415 0.445 0.698 0.027624 3.52799916 0.31061 8.92840079 2.061153622e-09 
-0.405 0.445 0.698 0.027624 3.52799916 0.31061 8.92840079 2.061153622e-09 
-0.395 0.445 0.698 0.027624 3.52799916 0.31061 8.92840079 2.061153622e-09 
-0.385 0.445 0.698 0.027624 3.52799916 0.31061 8.92840079 2.061153622e-09 
-0.375 0.445 0.698 0.027624 3.52799916 0.31061 8.92840079 2.061153622e-09 
-0.365 0.445 0.698 0.027624 3.52799916 0.31061 8.92840079 2.061153622e-09 
-0.355 0.445 0.698 0.027624 3.52799916 0.31061 8.92840079 2.061153622e-09 
-0.345 0.445 0.698 0.027624 3.52799916 0.31061 8.92840079 2.061153622e-09 
-0.335 0.445 0.6979999999 0.027624 3.52799916 0.31061 8.92840079 2.061153622e-09 
-0.325 0.4450000003 0.6979999974 0.02762400001 3.527999164 0.3106099991 8.928400799 2.061153646e-09 
-0.315 0.4450000026 0.6979999802 0.02762400007 3.527999189 0.310609993 8.928400858 2.061154306e-09 
-0.305 0.4450000057 0.697999957 0.02762400014 3.527999224 0.3106099849 8.928400937 2.061154855e-09 
-0.295 0.4450000071 0.6979999445 0.02762400018 3.527999239 0.3106099803 8.928400972 2.061154021e-09 
-0.285 0.4450000089 0.6980001154 0.02762400009 3.527999242 0.3106100576 8.928401034 2.061155039e-09 
-0.275 0.4449943992 0.6980638739 0.02762383558 3.527933758 0.3106345142 8.92825576 2.061173419e-09 
-0.265 0.4444173563 0.7026031121 0.02760874254 3.521433854 0.3122490176 8.913278201 2.087415954e-09 
-0.255 0.4380755965 0.7506834276 0.02744749024 3.450909715 0.3288560904 8.750707695 3.784530369e-09 
-0.245 0.4231822319 0.8658434982 0.02706977485 3.287713501 0.3664095841 8.37791043 1.40879008e-08 
-0.235 0.409082607 0.9778511933 0.02670603359 3.135467494 0.4000219155 8.034249688 4.349418102e-09 
-0.225 0.3984840797 1.063728652 0.0264262934 3.022241218 0.4238789328 7.781049127 2.488679547e-09 
-0.215 0.3895172461 1.137832108 0.02618566191 2.927333105 0.4432052292 7.570479333 2.471224703e-09 
-0.205 0.3811343084 1.208237726 0.02595743683 2.839368414 0.4605008502 7.376618285 2.160637877e-09 
-0.195 0.373088551 1.277392737 0.02573822485 2.755956823 0.4765806052 7.19428236 2.140644829e-09 
-0.185 0.3652968204 1.344691013 0.02551312996 2.674801327 0.4912113514 7.017267063 2.218661844e-09 
-0.175 0.3577523652 1.412206227 0.02532434382 2.600175198 0.5052201177 6.857175494 2.230560377e-09 
-0.165 0.3512278569 1.469732617 0.02507318553 2.52743715 0.5162110375 6.697938975 3.584295507e-09 
-0.155 0.3452149311 1.519480015 0.0250439703 2.481273562 0.5245471887 6.60170339 2.096957918e-09 
-0.145 0.344237318 1.543037261 0.02480717128 2.45085203 0.5311710083 6.536938404 3.26137971e-09 
-0.135 0.3414933503 1.5510693 0.02490639548 2.441040741 0.5296798518 6.513386931 2.604443476e-09 
-0.125 0.3417845927 1.552146474 0.02489740685 2.442240867 0.5304997503 6.517308826 2.165434748e-09 
-0.115 0.3435628891 1.541154122 0.02485245856 2.450515768 0.5294833628 6.534297153 2.53221977e-09 
-0.105 0.3439145281 1.532978036 0.02492054108 2.459743868 0.5272134178 6.553462965 2.714221119e-09 
-0.095 0.3442556687 1.533636198 0.02492871573 2.462991439 0.527962955 6.562330146 2.201994925e-09 
-0.085 0.3445110037 1.533451396 0.02491179725 2.463145434 0.5282908796 6.562917779 2.119217126e-09 
-0.075 0.3447803441 1.529255697 0.02493048602 2.466920425 0.5272573053 6.570456681 2.259434814e-09 
-0.065 0.3448725079 1.523341086 0.02496902523 2.471394411 0.5253584608 6.578636091 2.624257625e-09 
-0.055 0.3450181107 1.523630046 0.02493457242 2.469026292 0.5256799599 6.573036621 2.140651154e-09 
-0.045 0.3448314407 1.527982289 0.02490571024 2.464834048 0.526896334 6.564629254 2.545287656e-09 
-0.035 0.3444100461 1.529574425 0.02494736287 2.465939128 0.5268007984 6.567738334 2.08759144e-09 
-0.025 0.34497353 1.523627929 0.02497418124 2.47262883 0.5256113051 6.581990107 2.946713493e-09 
-0.015 0.3457090169 1.522120124 0.02492886869 2.473404655 0.5262106518 6.58398955 2.176352767e-09 
-0.005 0.344956283 1.529593732 0.02491581364 2.466726674 0.5276429682 6.570356374 2.792090118e-09 
0.005 0.3439817621 1.531674346 0.02495982461 2.464102918 0.5268680405 6.563752424 2.399706708e-09 
0.015 0.344778368 1.523933719 0.02496297078 2.470120697 0.5254193806 6.575653899 2.593678225e-09 
0.025 0.3459284158 1.519983379 0.0249222036 2.474312643 0.5258054421 6.585389374 2.638413427e-09 
0.035 0.3447716193 1.528228713 0.02492490329 2.46630559 0.526889888 6.568368103 2.692409189e-09 
0.045 0.343164915 1.534690846 0.0249638389 2.458646819 0.5266520537 6.550741089 3.109332394e-09 
0.055 0.3445694771 1.527058478 0.02496149242 2.468477928 0.5261777414 6.572946909 2.77605558e-09 
0.065 0.3466423156 1.518820144 0.02492548588 2.479745477 0.5264873318 6.599183476 3.700707855e-09 
0.075 0.3447526217 1.529180052 0.02492526798 2.466205776 0.5271888321 6.568597763 3.11648489e-09 
0.085 0.3424076055 1.541930879 0.02492149564 2.449059869 0.5279688601 6.529695416 4.978267689e-09 
0.095 0.3437996839 1.527376333 0.02500856172 2.467607521 0.5251115005 6.570040243 3.134665513e-09 
0.105 0.3463691483 1.504450769 0.02508581173 2.493729006 0.5210953314 6.626303652 9.226271438e-09 
0.115 0.3447563473 1.539342718 0.02482930639 2.456737501 0.5306981725 6.550306935 5.830275366e-09 
0.125 0.3529669893 1.551987383 0.02385330383 2.416376077 0.547800314 6.466029779 1.183997333e-08 
0.135 0.3980124372 1.485273027 0.02186847452 2.49802643 0.5911571373 6.684080949 4.159335941e-07 
0.145 0.5065549934 1.543482666 0.01673561805 2.433045626 0.7818588514 6.686006857 1.354282953e-08 
0.155 0.7813016924 1.517496564 0.01092445297 2.449629261 1.185622634 7.023662288 3.695302154e-08 
0.165 1.129614798 1.529963966 0.007611682432 2.467703236 1.728269937 7.491353454 6.716471611e-09 
0.175 1.292327035 1.529513986 0.006649667706 2.466347516 1.976632274 7.677512143 3.008323886e-09 
0.185 1.304261221 1.523211732 0.006552028078 2.452574613 1.986665994 7.644493009 4.682433315e-09 
0.195 1.304597622 1.521525575 0.006540736055 2.448979239 1.984978647 7.632545985 2.092526819e-09 
0.205 1.304713503 1.523508833 0.006551183977 2.453109022 1.987742547 7.646944219 2.336418382e-09 
0.215 1.309140977 1.532365766 0.006578973516 2.471874695 2.006082816 7.716713053 5.263982485e-09 
0.225 1.310090537 1.535320536 0.006590613467 2.478044196 2.011408905 7.73918919 2.132509105e-09 
0.235 1.30099572 1.526918731 0.006588134928 2.459915845 1.986514735 7.666412891 2.393427681e-09 
0.245 1.168872669 1.358832091 0.00630359434 2.114644453 1.588301692 6.365728786 1.647232942e-06 
0.255 0.68657981 0.5189197904 0.004863242872 0.9582942532 0.3562798511 2.488175966 0.02865259671 
0.265 0.5032009154 0.008323858429 0.003989682382 0.5761845942 0.004188573181 1.440478918 5.200390716e-06 
0.275 0.5000003735 2.009483308e-06 0.00397910119 0.5710014472 1.004742404e-06 1.427503618 2.071338544e-09 
0.285 0.4999999985 -4.342769603e-09 0.003979099995 0.5710008476 -2.171384795e-09 1.427502119 2.061153623e-09 
0.295 0.4999999998 -4.867424933e-10 0.003979099999 0.5710008497 -2.433712465e-10 1.427502124 2.061155081e-09 
0.305 0.5 -1.454999315e-12 0.0039791 0.57100085 -7.274996577e-13 1.427502125 2.061153629e-09 
0.315 0.5 -1.19262239e-16 0.0039791 0.57100085 -5.963111949e-17 1.427502125 2.061153622e-09 
0.325 0.5 0 0.0039791 0.57100085 0 1.427502125 2.061153622e-09 
0.335 0.5 0 0.0039791 0.57100085 0 1.427502125 2.061153622e-09 
0.345 0.5 0 0.0039791 0.57100085 0 1.427502125 2.061153622e-09 
0.355 0.5 0 0.0039791 0.57100085 0 1.427502125 2.061153622e-09 
0.365 0.5 0 0.0039791 0.57100085 0 1.427502125 2.061153622e-09 
0.375 0.5 0 0.0039791 0.57100085 0 1.427502125 2.061153622e-09 
0.385 0.5 0 0.0039791 0.57100085 0 1.427502125 2.061153622e-09 
0.395 0.5 0 0.0039791 0.57100085 0 1.427502125 2.061153622e-09 
0.405 0.5 0 0.0039791 0.57100085 0 1.427502125 2.061153622e-09 
0.415 0.5 0 0.0039791 0.57100085 0 1.427502125 2.061153622e-09 
0.425 0.5 0 0.0039791 0.57100085 0 1.427502125 2.061153622e-09 
0.435 0.5 0 0.0039791 0.57100085 0 1.427502125 2.061153622e-09 
0.445 0.5 0 0.0039791 0.57100085 0 1.427502125 2.061153622e-09 
0.455 0.5 0 0.0039791 0.57100085 0 1.427502125 2.061153622e-09 
0.465 0.5 0 0.0039791 0.57100085 0 1.427502125 2.061153622e-09 
0.475 0.5 0 0.0039791 0.57100085 0 1.427502125 2.061153622e-09 
0.485 0.5 0 0.0039791 0.57100085 0 1.427502125 2.061153622e-09 
0.495 0.5 0 0.0039791 0.57100085 0 1.427502125 2.061153622e-09 
